 +-------------------------------------------------+
 |                                                 |
 |      CCC   AA    SSS  TTTTT  EEEEE  PPPP        |
 |     C     A  A  S       T    E      P   P       |
 |     C     AAAA   SS     T    EEE    PPPP        |
 |     C     A  A     S    T    E      P           |
 |      CCC  A  A  SSS     T    EEEEE  P           |
 |                                                 |
 +-------------------------------------------------+
 |                                                 |
 | Welcome to Academic Release CASTEP version 16.11|          
 | Ab Initio Total Energy Program                  |
 |                                                 |
 | Authors:                                        |
 | M. Segall, M. Probert, C. Pickard, P. Hasnip,   |
 | S. Clark, K. Refson, J. R. Yates, M. Payne      |
 |                                                 |
 | Contributors:                                   |
 | P. Lindan, P. Haynes, J. White, V. Milman,      |
 | N. Govind, M. Gibson, P. Tulip, V. Cocula,      |
 | B. Montanari, D. Quigley, M. Glover,            |
 | L. Bernasconi, A. Perlov, M. Plummer,           |
 | E. McNellis, J. Meyer, J. Gale, D. Jochym       |
 | J. Aarons, B. Walker, R. Gillen, D. Jones       |
 | T. Green, I. J. Bush, C. J. Armstrong,          |
 | E. J. Higgins, E. L. Brown, M. S. McFly         |
 |                                                 |
 | Copyright (c) 2000 - 2015                       |
 |                                                 |
 |     Distributed under the terms of an           |
 |     Agreement between the United Kingdom        |
 |     Car-Parrinello (UKCP) Consortium,           |
 |     Daresbury Laboratory and Accelrys, Inc.     |
 |                                                 |
 | Please cite                                     |
 |                                                 |
 |     "First principles methods using CASTEP"     |
 |                                                 |
 |         Zeitschrift fuer Kristallographie       |
 |           220(5-6) pp. 567-570 (2005)           |
 |                                                 |
 | S. J. Clark, M. D. Segall, C. J. Pickard,       |
 | P. J. Hasnip, M. J. Probert, K. Refson,         |
 | M. C. Payne                                     |
 |                                                 |
 |       in all publications arising from          |
 |              your use of CASTEP                 |
 |                                                 |
 +-------------------------------------------------+


 Compiled for linux_x86_64_gfortran4.8 on Mon, 06 Feb 2017 13:41:39 +0000
 from code version Version unavailable
 Compiler: GNU Fortran 4.8.4; Optimisation: fast
 MATHLIBS: atlas (LAPACK version 3.5.0)
 FFT Lib : fftw3 version fftw-3.3.3-sse2-avx
 Fundamental constants values: CODATA 2010

 Run started: Fri, 10 Feb 2017 14:47:46 +0000

 Atomic calculation performed for Al: 1s2 2s2 2p6 3s2 3p1

 Converged in 55 iterations to an ae energy of -6578.725 eV

   ============================================================                
   | Pseudopotential Report - Date of generation 10-02-2017   |                
   ------------------------------------------------------------                
   | Element: Al Ionic charge:  3.00 Level of theory: LDA     |                
   | Atomic Solver: Koelling-Harmon                           |                
   |                                                          |                
   |               Reference Electronic Structure             |                
   |         Orbital         Occupation         Energy        |                
   |            3s              2.000           -0.288        |                
   |            3p              1.000           -0.102        |                
   |                                                          |                
   |                 Pseudopotential Definition               |                
   |        Beta     l      e      Rc     scheme   norm       |                
   |          1      0   -0.288   2.000     qc      0         |                
   |          2      0    0.250   2.000     qc      0         |                
   |          3      1   -0.102   2.000     qc      0         |                
   |          4      1    0.250   2.000     qc      0         |                
   |          5      2    0.000   2.000     qc      0         |                
   |          6      2    0.250   2.000     qc      0         |                
   |         loc     3    0.000   2.000     pn      0         |                
   |                                                          |                
   | Augmentation charge Rinner = 1.398                       |                
   | Partial core correction Rc = 1.398                       |                
   ------------------------------------------------------------                
   | "3|2.0|4|4|5|30:31:32"                                   |                
   ------------------------------------------------------------                
   |      Author: Chris J. Pickard, Cambridge University      |                
   ============================================================                

 Pseudo atomic calculation performed for Al 3s2 3p1

 Converged in 15 iterations to a total energy of -105.5956 eV

 Calculation parallelised over 4 processes.
 Data is distributed by k-point(4-way)

 ************************************ Title ************************************
 

 ***************************** General Parameters ******************************
  
 output verbosity                               : normal  (1)
 write checkpoint data to                       : Al.check
 type of calculation                            : single point energy
 stress calculation                             : off
 density difference calculation                 : off
 electron localisation func (ELF) calculation   : off
 Hirshfeld analysis                             : off
 unlimited duration calculation
 timing information                             : on
 memory usage estimate                          : on
 write final potential to formatted file        : off
 write final density to formatted file          : off
 write BibTeX reference list                    : on
 write OTFG pseudopotential files               : on
 checkpoint writing                             : both castep_bin and check files
  
 output         length unit                     : A
 output           mass unit                     : amu
 output           time unit                     : ps
 output         charge unit                     : e
 output           spin unit                     : hbar/2
 output         energy unit                     : eV
 output          force unit                     : eV/A
 output       velocity unit                     : A/ps
 output       pressure unit                     : GPa
 output     inv_length unit                     : 1/A
 output      frequency unit                     : cm-1
 output force constant unit                     : eV/A**2
 output         volume unit                     : A**3
 output   IR intensity unit                     : (D/A)**2/amu
 output         dipole unit                     : D
 output         efield unit                     : eV/A/e
 output        entropy unit                     : J/mol/K
  
 wavefunctions paging                           : none
 random number generator seed                   : randomised (144746939)
 data distribution                              : optimal for this architecture
 optimization strategy                          : maximize speed(+++)

 *********************** Exchange-Correlation Parameters ***********************
  
 using functional                               : Local Density Approximation
 relativistic treatment                         : Koelling-Harmon
 DFT+D: Semi-empirical dispersion correction    : off

 ************************* Pseudopotential Parameters **************************
  
 pseudopotential representation                 : reciprocal space
 <beta|phi> representation                      : reciprocal space
 spin-orbit coupling                            : off

 **************************** Basis Set Parameters *****************************
  
 plane wave basis set cut-off                   :   750.0000   eV
 size of standard grid                          :     1.7500
 size of   fine   gmax                          :    24.5532   1/A
 finite basis set correction                    : none

 **************************** Electronic Parameters ****************************
  
 number of  electrons                           :  12.00    
 net charge of system                           :  0.000    
 treating system as non-spin-polarized
 number of bands                                :         10

 ********************* Electronic Minimization Parameters **********************
  
 Method: Treating system as metallic with density mixing treatment of electrons,
         and number of  SD  steps               :          1
         and number of  CG  steps               :          4
  
 total energy / atom convergence tol.           : 0.1000E-04   eV
 eigen-energy convergence tolerance             : 0.1000E-05   eV
 max force / atom convergence tol.              : ignored
 convergence tolerance window                   :          3   cycles
 max. number of SCF cycles                      :        200
 number of fixed-spin iterations                :         10
 smearing scheme                                : Gaussian
 smearing width                                 : 0.2000       eV
 Fermi energy convergence tolerance             : 0.2721E-13   eV
 periodic dipole correction                     : NONE

 ************************** Density Mixing Parameters **************************
  
 density-mixing scheme                          : Broyden
 max. length of mixing history                  :         20
 charge density mixing amplitude                : 0.8000    
 cut-off energy for mixing                      :  750.0       eV

 *********************** Population Analysis Parameters ************************
  
 Population analysis with cutoff                :  3.000       A

 *******************************************************************************
  

                           -------------------------------
                                      Unit Cell
                           -------------------------------
        Real Lattice(A)                      Reciprocal Lattice(1/A)
   4.0500000   0.0000000   0.0000000        1.5514038   0.0000000   0.0000000
   0.0000000   4.0500000   0.0000000        0.0000000   1.5514038   0.0000000
   0.0000000   0.0000000   4.0500000        0.0000000   0.0000000   1.5514038

                       Lattice parameters(A)       Cell Angles
                    a =    4.050000          alpha =   90.000000
                    b =    4.050000          beta  =   90.000000
                    c =    4.050000          gamma =   90.000000

                       Current cell volume =   66.430125       A**3

                           -------------------------------
                                     Cell Contents
                           -------------------------------
                         Total number of ions in cell =    4
                      Total number of species in cell =    1
                        Max number of any one species =    4

            xxxxxxxxxxxxxxxxxxxxxxxxxxxxxxxxxxxxxxxxxxxxxxxxxxxxxxxxxxxx
            x  Element    Atom        Fractional coordinates of atoms  x
            x            Number           u          v          w      x
            x----------------------------------------------------------x
            x  Al           1         0.000000   0.000000   0.000000   x 
            x  Al           2         0.500000   0.500000   0.000000   x 
            x  Al           3         0.500000   0.000000   0.500000   x 
            x  Al           4         0.000000   0.500000   0.500000   x 
            xxxxxxxxxxxxxxxxxxxxxxxxxxxxxxxxxxxxxxxxxxxxxxxxxxxxxxxxxxxx


                         No user defined ionic velocities

                           -------------------------------
                                   Details of Species
                           -------------------------------

                               Mass of species in AMU
                                    Al   26.9815400

                          Electric Quadrupole Moment (Barn)
                                    Al    0.1466000 Isotope 27

                          Files used for pseudopotentials:
                                    Al 3|2.0|4|4|5|30:31:32

                           -------------------------------
                              k-Points For BZ Sampling
                           -------------------------------
                       MP grid size for SCF calculation is  4  4  4
                            with an offset of   0.000  0.000  0.000
                       Number of kpoints used =             4

                           -------------------------------
                               Symmetry and Constraints
                           -------------------------------

                      Cell is a supercell containing 4 primitive cells
                      Maximum deviation from symmetry =  0.00000         ANG

                      Number of symmetry operations   =         192
                      Number of ionic constraints     =           3
                      Point group of crystal =    32: Oh, m-3m, 4/m -3 2/m
                      Space group of crystal =   225: Fm-3m, -F 4 2 3

             Set iprint > 1 for details on symmetry rotations/translations

                         Centre of mass is constrained
             Set iprint > 1 for details of linear ionic constraints

                         Number of cell constraints= 5
                         Cell constraints are:  1 1 1 0 0 0

                         External pressure/stress (GPa)
                          0.00000   0.00000   0.00000
                                    0.00000   0.00000
                                              0.00000
  
+---------------- MEMORY AND SCRATCH DISK ESTIMATES PER PROCESS --------------+
|                                                     Memory          Disk    |
| Baseline code, static data and system overhead    37098.0 MB         0.0 MB |
| BLAS internal memory storage                          0.0 MB         0.0 MB |
| Model and support data                               69.1 MB         0.0 MB |
| Electronic energy minimisation requirements           7.3 MB         0.0 MB |
| Force calculation requirements                        4.3 MB         0.0 MB |
|                                               ----------------------------- |
| Approx. total storage required per process        37174.4 MB         0.0 MB |
|                                                                             |
| Requirements will fluctuate during execution and may exceed these estimates |
+-----------------------------------------------------------------------------+
------------------------------------------------------------------------ <-- SCF
SCF loop      Energy           Fermi           Energy gain       Timer   <-- SCF
                               energy          per atom          (sec)   <-- SCF
------------------------------------------------------------------------ <-- SCF
Initial   8.39383149E+001  0.00000000E+000                         9.69  <-- SCF
      1  -3.96431086E+002  9.22768915E+000   1.20092350E+002       9.84  <-- SCF
      2  -4.36889593E+002  5.79765652E+000   1.01146268E+001       9.99  <-- SCF
      3  -4.39017749E+002  5.88207905E+000   5.32038959E-001      10.13  <-- SCF
      4  -4.38974427E+002  5.84517128E+000  -1.08303768E-002      10.42  <-- SCF
      5  -4.38966264E+002  5.83561175E+000  -2.04092706E-003      10.82  <-- SCF
      6  -4.38965315E+002  5.83263744E+000  -2.37077724E-004      11.10  <-- SCF
      7  -4.38965266E+002  5.83201474E+000  -1.24454144E-005      11.33  <-- SCF
      8  -4.38974686E+002  5.81854047E+000   2.35512263E-003      11.55  <-- SCF
      9  -4.38971505E+002  5.82022057E+000  -7.95345583E-004      11.83  <-- SCF
     10  -4.38978743E+002  5.81605920E+000   1.80962712E-003      12.06  <-- SCF
     11  -4.38976625E+002  5.81747267E+000  -5.29458781E-004      12.28  <-- SCF
     12  -4.38972407E+002  5.81867188E+000  -1.05462422E-003      12.51  <-- SCF
     13  -4.38974194E+002  5.81677093E+000   4.46907108E-004      12.71  <-- SCF
     14  -4.38970457E+002  5.82459795E+000  -9.34480520E-004      12.94  <-- SCF
     15  -4.38967548E+002  5.82794495E+000  -7.27111732E-004      13.20  <-- SCF
     16  -4.38966785E+002  5.82929962E+000  -1.90774221E-004      13.42  <-- SCF
     17  -4.38965818E+002  5.82996464E+000  -2.41841772E-004      13.62  <-- SCF
     18  -4.38967651E+002  5.82973600E+000   4.58447001E-004      13.82  <-- SCF
     19  -4.38961143E+002  5.83319327E+000  -1.62699128E-003      14.05  <-- SCF
     20  -4.38959074E+002  5.83365272E+000  -5.17297965E-004      14.26  <-- SCF
     21  -4.38960482E+002  5.83516069E+000   3.52032644E-004      14.46  <-- SCF
     22  -4.38932928E+002  5.82753423E+000  -6.88865223E-003      14.72  <-- SCF
     23  -4.38929780E+002  5.82625831E+000  -7.86829570E-004      14.92  <-- SCF
     24  -4.38903223E+002  5.82335530E+000  -6.63947729E-003      15.18  <-- SCF
     25  -4.38900506E+002  5.82221177E+000  -6.79139412E-004      15.37  <-- SCF
     26  -4.38052984E+002  5.97057839E+000  -2.11880567E-001      15.60  <-- SCF
     27  -4.38327566E+002  5.96713929E+000   6.86455039E-002      15.82  <-- SCF
     28  -4.38628169E+002  5.91646261E+000   7.51507114E-002      16.05  <-- SCF
     29  -4.38641335E+002  5.87261250E+000   3.29158862E-003      16.30  <-- SCF
     30  -4.38213311E+002  5.95135802E+000  -1.07005982E-001      16.55  <-- SCF
     31  -4.32967118E+002  6.47056355E+000  -1.31154826E+000      16.79  <-- SCF
     32  -4.32042600E+002  6.33727023E+000  -2.31129550E-001      17.03  <-- SCF
     33  -4.36494526E+002  6.04174844E+000   1.11298166E+000      17.31  <-- SCF
     34  -4.38963715E+002  5.89050166E+000   6.17297130E-001      17.57  <-- SCF
     35  -4.38899333E+002  5.80157044E+000  -1.60955958E-002      17.80  <-- SCF
     36  -4.37158149E+002  6.09360499E+000  -4.35295777E-001      18.02  <-- SCF
     37  -4.38976618E+002  5.76300604E+000   4.54617085E-001      18.27  <-- SCF
     38  -4.38218835E+002  6.06615678E+000  -1.89445689E-001      18.49  <-- SCF
     39  -4.36905149E+002  5.97810407E+000  -3.28421381E-001      18.72  <-- SCF
     40  -4.38620912E+002  5.88783243E+000   4.28940722E-001      18.95  <-- SCF
     41  -4.33041457E+002  6.42470742E+000  -1.39486390E+000      19.18  <-- SCF
     42  -4.37635260E+002  5.90678889E+000   1.14845083E+000      19.42  <-- SCF
     43  -4.38861212E+002  5.77589117E+000   3.06488049E-001      19.66  <-- SCF
     44  -4.38848974E+002  5.77476155E+000  -3.05966273E-003      19.92  <-- SCF
     45  -4.38884879E+002  5.78239887E+000   8.97639728E-003      20.15  <-- SCF
     46  -4.38959577E+002  5.81495927E+000   1.86744140E-002      20.40  <-- SCF
     47  -4.38964807E+002  5.82612068E+000   1.30747669E-003      20.65  <-- SCF
     48  -4.38965210E+002  5.82951882E+000   1.00722539E-004      20.90  <-- SCF
     49  -4.38965253E+002  5.83088990E+000   1.07964978E-005      21.12  <-- SCF
     50  -4.38965257E+002  5.83191189E+000   9.88976786E-007      21.32  <-- SCF
     51  -4.38965258E+002  5.83209011E+000   1.75049823E-007      21.50  <-- SCF
------------------------------------------------------------------------ <-- SCF
 
Final energy, E             =  -438.8703356298     eV
Final free energy (E-TS)    =  -438.9652575303     eV
(energies not corrected for finite basis set)
 
NB est. 0K energy (E-0.5TS)      =  -438.9177965800     eV
 

Writing analysis data to Al.castep_bin

Writing model to Al.check

 ***************** Symmetrised Forces *****************
 *                                                    *
 *            Cartesian components (eV/A)             *
 * -------------------------------------------------- *
 *                   x            y            z      *
 *                                                    *
 * Al        1      0.00000      0.00000      0.00000 *
 * Al        2      0.00000      0.00000      0.00000 *
 * Al        3      0.00000      0.00000      0.00000 *
 * Al        4      0.00000      0.00000      0.00000 *
 *                                                    *
 ******************************************************

 Pseudo atomic calculation performed for Al 3s2 3p1

 Converged in 15 iterations to a total energy of -105.5956 eV

Charge spilling parameter for spin component 1 = 1.98%

     Atomic Populations (Mulliken)
     -----------------------------
Species   Ion     s      p      d      f     Total  Charge (e)
==============================================================
  Al       1     1.11   1.89   0.00   0.00   3.00     0.00
  Al       2     1.11   1.89   0.00   0.00   3.00     0.00
  Al       3     1.11   1.89   0.00   0.00   3.00     0.00
  Al       4     1.11   1.89   0.00   0.00   3.00     0.00
==============================================================

            Bond              Population      Length (A)
============================================================
         Al 3 -- Al 4              0.56        2.86378
         Al 2 -- Al 4              0.56        2.86378
         Al 2 -- Al 3              0.56        2.86378
         Al 1 -- Al 4              0.56        2.86378
         Al 1 -- Al 3              0.56        2.86378
         Al 1 -- Al 2              0.56        2.86378
============================================================


Writing analysis data to Al.castep_bin

Writing model to Al.check
 
 A BibTeX formatted list of references used in this run has been written to 
 Al.bib
 
Initialisation time =      7.34 s
Calculation time    =     15.17 s
Finalisation time   =      0.01 s
Total time          =     22.52 s
Peak Memory Use     = 38250496 kB
  
Overall parallel efficiency rating: Good (71%)                                  
  
Data was distributed by:-
k-point (4-way); efficiency rating: Good (72%)                                  
  
Parallel notes:
1) Calculation only took 22.5 s, so efficiency estimates may be inaccurate.     
 +-------------------------------------------------+
 |                                                 |
 |      CCC   AA    SSS  TTTTT  EEEEE  PPPP        |
 |     C     A  A  S       T    E      P   P       |
 |     C     AAAA   SS     T    EEE    PPPP        |
 |     C     A  A     S    T    E      P           |
 |      CCC  A  A  SSS     T    EEEEE  P           |
 |                                                 |
 +-------------------------------------------------+
 |                                                 |
 | Welcome to Academic Release CASTEP version 16.11|          
 | Ab Initio Total Energy Program                  |
 |                                                 |
 | Authors:                                        |
 | M. Segall, M. Probert, C. Pickard, P. Hasnip,   |
 | S. Clark, K. Refson, J. R. Yates, M. Payne      |
 |                                                 |
 | Contributors:                                   |
 | P. Lindan, P. Haynes, J. White, V. Milman,      |
 | N. Govind, M. Gibson, P. Tulip, V. Cocula,      |
 | B. Montanari, D. Quigley, M. Glover,            |
 | L. Bernasconi, A. Perlov, M. Plummer,           |
 | E. McNellis, J. Meyer, J. Gale, D. Jochym       |
 | J. Aarons, B. Walker, R. Gillen, D. Jones       |
 | T. Green, I. J. Bush, C. J. Armstrong,          |
 | E. J. Higgins, E. L. Brown, M. S. McFly         |
 |                                                 |
 | Copyright (c) 2000 - 2015                       |
 |                                                 |
 |     Distributed under the terms of an           |
 |     Agreement between the United Kingdom        |
 |     Car-Parrinello (UKCP) Consortium,           |
 |     Daresbury Laboratory and Accelrys, Inc.     |
 |                                                 |
 | Please cite                                     |
 |                                                 |
 |     "First principles methods using CASTEP"     |
 |                                                 |
 |         Zeitschrift fuer Kristallographie       |
 |           220(5-6) pp. 567-570 (2005)           |
 |                                                 |
 | S. J. Clark, M. D. Segall, C. J. Pickard,       |
 | P. J. Hasnip, M. J. Probert, K. Refson,         |
 | M. C. Payne                                     |
 |                                                 |
 |       in all publications arising from          |
 |              your use of CASTEP                 |
 |                                                 |
 +-------------------------------------------------+


 Compiled for linux_x86_64_gfortran4.8 on Mon, 06 Feb 2017 13:41:39 +0000
 from code version Version unavailable
 Compiler: GNU Fortran 4.8.4; Optimisation: fast
 MATHLIBS: atlas (LAPACK version 3.5.0)
 FFT Lib : fftw3 version fftw-3.3.3-sse2-avx
 Fundamental constants values: CODATA 2010

 Run started: Fri, 10 Feb 2017 14:55:22 +0000
 +-------------------------------------------------+
 |                                                 |
 |      CCC   AA    SSS  TTTTT  EEEEE  PPPP        |
 |     C     A  A  S       T    E      P   P       |
 |     C     AAAA   SS     T    EEE    PPPP        |
 |     C     A  A     S    T    E      P           |
 |      CCC  A  A  SSS     T    EEEEE  P           |
 |                                                 |
 +-------------------------------------------------+
 |                                                 |
 | Welcome to Academic Release CASTEP version 16.11|          
 | Ab Initio Total Energy Program                  |
 |                                                 |
 | Authors:                                        |
 | M. Segall, M. Probert, C. Pickard, P. Hasnip,   |
 | S. Clark, K. Refson, J. R. Yates, M. Payne      |
 |                                                 |
 | Contributors:                                   |
 | P. Lindan, P. Haynes, J. White, V. Milman,      |
 | N. Govind, M. Gibson, P. Tulip, V. Cocula,      |
 | B. Montanari, D. Quigley, M. Glover,            |
 | L. Bernasconi, A. Perlov, M. Plummer,           |
 | E. McNellis, J. Meyer, J. Gale, D. Jochym       |
 | J. Aarons, B. Walker, R. Gillen, D. Jones       |
 | T. Green, I. J. Bush, C. J. Armstrong,          |
 | E. J. Higgins, E. L. Brown, M. S. McFly         |
 |                                                 |
 | Copyright (c) 2000 - 2015                       |
 |                                                 |
 |     Distributed under the terms of an           |
 |     Agreement between the United Kingdom        |
 |     Car-Parrinello (UKCP) Consortium,           |
 |     Daresbury Laboratory and Accelrys, Inc.     |
 |                                                 |
 | Please cite                                     |
 |                                                 |
 |     "First principles methods using CASTEP"     |
 |                                                 |
 |         Zeitschrift fuer Kristallographie       |
 |           220(5-6) pp. 567-570 (2005)           |
 |                                                 |
 | S. J. Clark, M. D. Segall, C. J. Pickard,       |
 | P. J. Hasnip, M. J. Probert, K. Refson,         |
 | M. C. Payne                                     |
 |                                                 |
 |       in all publications arising from          |
 |              your use of CASTEP                 |
 |                                                 |
 +-------------------------------------------------+


 Compiled for linux_x86_64_gfortran4.8 on Mon, 06 Feb 2017 13:41:39 +0000
 from code version Version unavailable
 Compiler: GNU Fortran 4.8.4; Optimisation: fast
 MATHLIBS: atlas (LAPACK version 3.5.0)
 FFT Lib : fftw3 version fftw-3.3.3-sse2-avx
 Fundamental constants values: CODATA 2010

 Run started: Fri, 10 Feb 2017 14:55:46 +0000

 Atomic calculation performed for Al: 1s2 2s2 2p6 3s2 3p1

 Converged in 55 iterations to an ae energy of -6578.725 eV

   ============================================================                
   | Pseudopotential Report - Date of generation 10-02-2017   |                
   ------------------------------------------------------------                
   | Element: Al Ionic charge:  3.00 Level of theory: LDA     |                
   | Atomic Solver: Koelling-Harmon                           |                
   |                                                          |                
   |               Reference Electronic Structure             |                
   |         Orbital         Occupation         Energy        |                
   |            3s              2.000           -0.288        |                
   |            3p              1.000           -0.102        |                
   |                                                          |                
   |                 Pseudopotential Definition               |                
   |        Beta     l      e      Rc     scheme   norm       |                
   |          1      0   -0.288   2.000     qc      0         |                
   |          2      0    0.250   2.000     qc      0         |                
   |          3      1   -0.102   2.000     qc      0         |                
   |          4      1    0.250   2.000     qc      0         |                
   |          5      2    0.000   2.000     qc      0         |                
   |          6      2    0.250   2.000     qc      0         |                
   |         loc     3    0.000   2.000     pn      0         |                
   |                                                          |                
   | Augmentation charge Rinner = 1.398                       |                
   | Partial core correction Rc = 1.398                       |                
   ------------------------------------------------------------                
   | "3|2.0|4|4|5|30:31:32"                                   |                
   ------------------------------------------------------------                
   |      Author: Chris J. Pickard, Cambridge University      |                
   ============================================================                

 Pseudo atomic calculation performed for Al 3s2 3p1

 Converged in 15 iterations to a total energy of -105.5956 eV

 Calculation parallelised over 4 processes.
 Data is distributed by k-point(4-way)

 ************************************ Title ************************************
 

 ***************************** General Parameters ******************************
  
 output verbosity                               : normal  (1)
 write checkpoint data to                       : Al.check
 type of calculation                            : single point energy
 stress calculation                             : off
 density difference calculation                 : off
 electron localisation func (ELF) calculation   : off
 Hirshfeld analysis                             : off
 unlimited duration calculation
 timing information                             : on
 memory usage estimate                          : on
 write final potential to formatted file        : off
 write final density to formatted file          : off
 write BibTeX reference list                    : on
 write OTFG pseudopotential files               : on
 checkpoint writing                             : both castep_bin and check files
  
 output         length unit                     : A
 output           mass unit                     : amu
 output           time unit                     : ps
 output         charge unit                     : e
 output           spin unit                     : hbar/2
 output         energy unit                     : eV
 output          force unit                     : eV/A
 output       velocity unit                     : A/ps
 output       pressure unit                     : GPa
 output     inv_length unit                     : 1/A
 output      frequency unit                     : cm-1
 output force constant unit                     : eV/A**2
 output         volume unit                     : A**3
 output   IR intensity unit                     : (D/A)**2/amu
 output         dipole unit                     : D
 output         efield unit                     : eV/A/e
 output        entropy unit                     : J/mol/K
  
 wavefunctions paging                           : none
 random number generator seed                   : randomised (145546469)
 data distribution                              : optimal for this architecture
 optimization strategy                          : maximize speed(+++)

 *********************** Exchange-Correlation Parameters ***********************
  
 using functional                               : Local Density Approximation
 relativistic treatment                         : Koelling-Harmon
 DFT+D: Semi-empirical dispersion correction    : off

 ************************* Pseudopotential Parameters **************************
  
 pseudopotential representation                 : reciprocal space
 <beta|phi> representation                      : reciprocal space
 spin-orbit coupling                            : off

 **************************** Basis Set Parameters *****************************
  
 plane wave basis set cut-off                   :   750.0000   eV
 size of standard grid                          :     1.7500
 size of   fine   gmax                          :    24.5532   1/A
 finite basis set correction                    : none

 **************************** Electronic Parameters ****************************
  
 number of  electrons                           :  12.00    
 net charge of system                           :  0.000    
 treating system as non-spin-polarized
 number of bands                                :         10

 ********************* Electronic Minimization Parameters **********************
  
 Method: Treating system as metallic with density mixing treatment of electrons,
         and number of  SD  steps               :          1
         and number of  CG  steps               :          4
  
 total energy / atom convergence tol.           : 0.1000E-04   eV
 eigen-energy convergence tolerance             : 0.1000E-05   eV
 max force / atom convergence tol.              : ignored
 convergence tolerance window                   :          3   cycles
 max. number of SCF cycles                      :        200
 number of fixed-spin iterations                :         10
 smearing scheme                                : Gaussian
 smearing width                                 : 0.2000       eV
 Fermi energy convergence tolerance             : 0.2721E-13   eV
 periodic dipole correction                     : NONE

 ************************** Density Mixing Parameters **************************
  
 density-mixing scheme                          : Broyden
 max. length of mixing history                  :         20
 charge density mixing amplitude                : 0.8000    
 cut-off energy for mixing                      :  750.0       eV

 *********************** Population Analysis Parameters ************************
  
 Population analysis with cutoff                :  3.000       A

 *******************************************************************************
  

                           -------------------------------
                                      Unit Cell
                           -------------------------------
        Real Lattice(A)                      Reciprocal Lattice(1/A)
   4.0495000   0.0000000   0.0000000        1.5515953  -0.0000000  -0.0000000
   0.0000000   4.0495000   0.0000000        0.0000000   1.5515953  -0.0000000
   0.0000000   0.0000000   4.0495000        0.0000000   0.0000000   1.5515953

                       Lattice parameters(A)       Cell Angles
                    a =    4.049500          alpha =   90.000000
                    b =    4.049500          beta  =   90.000000
                    c =    4.049500          gamma =   90.000000

                       Current cell volume =   66.405524       A**3

                           -------------------------------
                                     Cell Contents
                           -------------------------------
                         Total number of ions in cell =    4
                      Total number of species in cell =    1
                        Max number of any one species =    4

            xxxxxxxxxxxxxxxxxxxxxxxxxxxxxxxxxxxxxxxxxxxxxxxxxxxxxxxxxxxx
            x  Element    Atom        Fractional coordinates of atoms  x
            x            Number           u          v          w      x
            x----------------------------------------------------------x
            x  Al           1         0.000000   0.000000   0.000000   x 
            x  Al           2         0.500000   0.500000   0.000000   x 
            x  Al           3         0.500000   0.000000   0.500000   x 
            x  Al           4         0.000000   0.500000   0.500000   x 
            xxxxxxxxxxxxxxxxxxxxxxxxxxxxxxxxxxxxxxxxxxxxxxxxxxxxxxxxxxxx


                         No user defined ionic velocities

                           -------------------------------
                                   Details of Species
                           -------------------------------

                               Mass of species in AMU
                                    Al   26.9815400

                          Electric Quadrupole Moment (Barn)
                                    Al    0.1466000 Isotope 27

                          Files used for pseudopotentials:
                                    Al 3|2.0|4|4|5|30:31:32

                           -------------------------------
                              k-Points For BZ Sampling
                           -------------------------------
                       MP grid size for SCF calculation is  4  4  4
                            with an offset of   0.000  0.000  0.000
                       Number of kpoints used =             4

                           -------------------------------
                               Symmetry and Constraints
                           -------------------------------

                      Cell is a supercell containing 4 primitive cells
                      Maximum deviation from symmetry = 0.521809E-31     ANG

                      Number of symmetry operations   =         192
                      Number of ionic constraints     =           3
                      Point group of crystal =    32: Oh, m-3m, 4/m -3 2/m
                      Space group of crystal =   225: Fm-3m, -F 4 2 3

             Set iprint > 1 for details on symmetry rotations/translations

                         Centre of mass is constrained
             Set iprint > 1 for details of linear ionic constraints

                         Number of cell constraints= 5
                         Cell constraints are:  1 1 1 0 0 0

                         External pressure/stress (GPa)
                          0.00000   0.00000   0.00000
                                    0.00000   0.00000
                                              0.00000
  
+---------------- MEMORY AND SCRATCH DISK ESTIMATES PER PROCESS --------------+
|                                                     Memory          Disk    |
| Baseline code, static data and system overhead    37097.0 MB         0.0 MB |
| BLAS internal memory storage                          0.0 MB         0.0 MB |
| Model and support data                               69.1 MB         0.0 MB |
| Electronic energy minimisation requirements           7.3 MB         0.0 MB |
| Force calculation requirements                        4.3 MB         0.0 MB |
|                                               ----------------------------- |
| Approx. total storage required per process        37173.4 MB         0.0 MB |
|                                                                             |
| Requirements will fluctuate during execution and may exceed these estimates |
+-----------------------------------------------------------------------------+
------------------------------------------------------------------------ <-- SCF
SCF loop      Energy           Fermi           Energy gain       Timer   <-- SCF
                               energy          per atom          (sec)   <-- SCF
------------------------------------------------------------------------ <-- SCF
Initial   7.89824172E+001  0.00000000E+000                         9.45  <-- SCF
      1  -3.94719528E+002  9.04384387E+000   1.18425486E+002       9.60  <-- SCF
      2  -4.37145429E+002  5.75909124E+000   1.06064754E+001       9.75  <-- SCF
      3  -4.39028029E+002  5.88368685E+000   4.70650037E-001       9.88  <-- SCF
      4  -4.38975847E+002  5.84869311E+000  -1.30456135E-002      10.20  <-- SCF
      5  -4.38966826E+002  5.83876515E+000  -2.25514283E-003      10.46  <-- SCF
      6  -4.38965858E+002  5.83576317E+000  -2.42196841E-004      10.72  <-- SCF
      7  -4.38965808E+002  5.83514934E+000  -1.23345055E-005      10.94  <-- SCF
      8  -4.38979257E+002  5.82402972E+000   3.36222886E-003      11.16  <-- SCF
      9  -4.38972600E+002  5.82713804E+000  -1.66418799E-003      11.40  <-- SCF
     10  -4.38977284E+002  5.82195132E+000   1.17093252E-003      11.63  <-- SCF
     11  -4.38976953E+002  5.82196424E+000  -8.28173774E-005      11.86  <-- SCF
     12  -4.38973655E+002  5.82486653E+000  -8.24441415E-004      12.09  <-- SCF
     13  -4.38971684E+002  5.82586507E+000  -4.92735671E-004      12.28  <-- SCF
     14  -4.38970416E+002  5.82660664E+000  -3.16946817E-004      12.46  <-- SCF
     15  -4.38969937E+002  5.82685392E+000  -1.19761905E-004      12.66  <-- SCF
     16  -4.38969553E+002  5.82719273E+000  -9.60573973E-005      12.85  <-- SCF
     17  -4.38969477E+002  5.82657309E+000  -1.90392587E-005      13.03  <-- SCF
     18  -4.38976904E+002  5.84225279E+000   1.85675820E-003      13.28  <-- SCF
     19  -4.38978572E+002  5.84629023E+000   4.17097132E-004      13.53  <-- SCF
     20  -4.38979671E+002  5.84784115E+000   2.74738729E-004      13.74  <-- SCF
     21  -4.38979413E+002  5.84770882E+000  -6.46780129E-005      13.93  <-- SCF
     22  -4.38978649E+002  5.85179658E+000  -1.91002560E-004      14.17  <-- SCF
     23  -4.38978853E+002  5.85105331E+000   5.09888680E-005      14.35  <-- SCF
     24  -4.38959862E+002  5.85628019E+000  -4.74761253E-003      14.57  <-- SCF
     25  -4.38941113E+002  5.86039026E+000  -4.68737279E-003      14.81  <-- SCF
     26  -4.38852916E+002  5.86311977E+000  -2.20492330E-002      15.04  <-- SCF
     27  -4.38753888E+002  5.85938692E+000  -2.47569788E-002      15.31  <-- SCF
     28  -4.38800247E+002  5.89890647E+000   1.15896732E-002      15.56  <-- SCF
     29  -4.36133744E+002  5.99639805E+000  -6.66625626E-001      15.82  <-- SCF
     30  -4.33239071E+002  6.23103019E+000  -7.23668251E-001      16.07  <-- SCF
     31  -4.33199757E+002  6.28144706E+000  -9.82839661E-003      16.31  <-- SCF
     32  -4.38867339E+002  5.82777920E+000   1.41689535E+000      16.54  <-- SCF
     33  -4.38036379E+002  6.12407095E+000  -2.07739982E-001      16.78  <-- SCF
     34  -4.38325301E+002  6.30306310E+000   7.22305069E-002      17.03  <-- SCF
     35  -4.39136394E+002  6.37786905E+000   2.02773309E-001      17.27  <-- SCF
     36  -4.39918768E+002  6.95600118E+000   1.95593458E-001      17.49  <-- SCF
     37  -4.39541244E+002  7.17234068E+000  -9.43810983E-002      17.77  <-- SCF
     38  -4.38635485E+002  6.04315920E+000  -2.26439632E-001      17.99  <-- SCF
     39  -4.38958618E+002  5.81228769E+000   8.07833045E-002      18.24  <-- SCF
     40  -4.38258890E+002  5.85087648E+000  -1.74932017E-001      18.47  <-- SCF
     41  -4.37947559E+002  5.88348338E+000  -7.78328604E-002      18.73  <-- SCF
     42  -4.37443758E+002  6.01009595E+000  -1.25950119E-001      18.97  <-- SCF
     43  -4.35093710E+002  6.24325402E+000  -5.87512067E-001      19.20  <-- SCF
     44  -4.38710910E+002  5.85407015E+000   9.04299910E-001      19.43  <-- SCF
     45  -4.38942348E+002  5.83217650E+000   5.78595999E-002      19.69  <-- SCF
     46  -4.38963753E+002  5.83253233E+000   5.35123440E-003      19.93  <-- SCF
     47  -4.38965631E+002  5.83372297E+000   4.69473009E-004      20.21  <-- SCF
     48  -4.38965791E+002  5.83430722E+000   4.00590484E-005      20.40  <-- SCF
     49  -4.38965797E+002  5.83461462E+000   1.46671749E-006      20.59  <-- SCF
     50  -4.38965804E+002  5.83449517E+000   1.67175115E-006      20.78  <-- SCF
------------------------------------------------------------------------ <-- SCF
 
Final energy, E             =  -438.8709295498     eV
Final free energy (E-TS)    =  -438.9658037123     eV
(energies not corrected for finite basis set)
 
NB est. 0K energy (E-0.5TS)      =  -438.9183666310     eV
 

Writing analysis data to Al.castep_bin

Writing model to Al.check

 ***************** Symmetrised Forces *****************
 *                                                    *
 *            Cartesian components (eV/A)             *
 * -------------------------------------------------- *
 *                   x            y            z      *
 *                                                    *
 * Al        1      0.00000      0.00000      0.00000 *
 * Al        2      0.00000      0.00000      0.00000 *
 * Al        3      0.00000      0.00000      0.00000 *
 * Al        4      0.00000      0.00000      0.00000 *
 *                                                    *
 ******************************************************

 Pseudo atomic calculation performed for Al 3s2 3p1

 Converged in 15 iterations to a total energy of -105.5956 eV

Charge spilling parameter for spin component 1 = 1.98%

     Atomic Populations (Mulliken)
     -----------------------------
Species   Ion     s      p      d      f     Total  Charge (e)
==============================================================
  Al       1     1.11   1.89   0.00   0.00   3.00     0.00
  Al       2     1.11   1.89   0.00   0.00   3.00     0.00
  Al       3     1.11   1.89   0.00   0.00   3.00     0.00
  Al       4     1.11   1.89   0.00   0.00   3.00     0.00
==============================================================

            Bond              Population      Length (A)
============================================================
         Al 3 -- Al 4              0.56        2.86343
         Al 2 -- Al 4              0.56        2.86343
         Al 2 -- Al 3              0.56        2.86343
         Al 1 -- Al 4              0.56        2.86343
         Al 1 -- Al 3              0.56        2.86343
         Al 1 -- Al 2              0.56        2.86343
============================================================


Writing analysis data to Al.castep_bin

Writing model to Al.check
 
 A BibTeX formatted list of references used in this run has been written to 
 Al.bib
 
Initialisation time =      7.19 s
Calculation time    =     14.62 s
Finalisation time   =      0.02 s
Total time          =     21.83 s
Peak Memory Use     = 38250496 kB
  
Overall parallel efficiency rating: Good (72%)                                  
  
Data was distributed by:-
k-point (4-way); efficiency rating: Good (72%)                                  
  
Parallel notes:
1) Calculation only took 21.8 s, so efficiency estimates may be inaccurate.     
 +-------------------------------------------------+
 |                                                 |
 |      CCC   AA    SSS  TTTTT  EEEEE  PPPP        |
 |     C     A  A  S       T    E      P   P       |
 |     C     AAAA   SS     T    EEE    PPPP        |
 |     C     A  A     S    T    E      P           |
 |      CCC  A  A  SSS     T    EEEEE  P           |
 |                                                 |
 +-------------------------------------------------+
 |                                                 |
 | Welcome to Academic Release CASTEP version 16.11|          
 | Ab Initio Total Energy Program                  |
 |                                                 |
 | Authors:                                        |
 | M. Segall, M. Probert, C. Pickard, P. Hasnip,   |
 | S. Clark, K. Refson, J. R. Yates, M. Payne      |
 |                                                 |
 | Contributors:                                   |
 | P. Lindan, P. Haynes, J. White, V. Milman,      |
 | N. Govind, M. Gibson, P. Tulip, V. Cocula,      |
 | B. Montanari, D. Quigley, M. Glover,            |
 | L. Bernasconi, A. Perlov, M. Plummer,           |
 | E. McNellis, J. Meyer, J. Gale, D. Jochym       |
 | J. Aarons, B. Walker, R. Gillen, D. Jones       |
 | T. Green, I. J. Bush, C. J. Armstrong,          |
 | E. J. Higgins, E. L. Brown, M. S. McFly         |
 |                                                 |
 | Copyright (c) 2000 - 2015                       |
 |                                                 |
 |     Distributed under the terms of an           |
 |     Agreement between the United Kingdom        |
 |     Car-Parrinello (UKCP) Consortium,           |
 |     Daresbury Laboratory and Accelrys, Inc.     |
 |                                                 |
 | Please cite                                     |
 |                                                 |
 |     "First principles methods using CASTEP"     |
 |                                                 |
 |         Zeitschrift fuer Kristallographie       |
 |           220(5-6) pp. 567-570 (2005)           |
 |                                                 |
 | S. J. Clark, M. D. Segall, C. J. Pickard,       |
 | P. J. Hasnip, M. J. Probert, K. Refson,         |
 | M. C. Payne                                     |
 |                                                 |
 |       in all publications arising from          |
 |              your use of CASTEP                 |
 |                                                 |
 +-------------------------------------------------+


 Compiled for linux_x86_64_gfortran4.8 on Mon, 06 Feb 2017 13:41:39 +0000
 from code version Version unavailable
 Compiler: GNU Fortran 4.8.4; Optimisation: fast
 MATHLIBS: atlas (LAPACK version 3.5.0)
 FFT Lib : fftw3 version fftw-3.3.3-sse2-avx
 Fundamental constants values: CODATA 2010

 Run started: Fri, 10 Feb 2017 14:57:19 +0000
 +-------------------------------------------------+
 |                                                 |
 |      CCC   AA    SSS  TTTTT  EEEEE  PPPP        |
 |     C     A  A  S       T    E      P   P       |
 |     C     AAAA   SS     T    EEE    PPPP        |
 |     C     A  A     S    T    E      P           |
 |      CCC  A  A  SSS     T    EEEEE  P           |
 |                                                 |
 +-------------------------------------------------+
 |                                                 |
 | Welcome to Academic Release CASTEP version 16.11|          
 | Ab Initio Total Energy Program                  |
 |                                                 |
 | Authors:                                        |
 | M. Segall, M. Probert, C. Pickard, P. Hasnip,   |
 | S. Clark, K. Refson, J. R. Yates, M. Payne      |
 |                                                 |
 | Contributors:                                   |
 | P. Lindan, P. Haynes, J. White, V. Milman,      |
 | N. Govind, M. Gibson, P. Tulip, V. Cocula,      |
 | B. Montanari, D. Quigley, M. Glover,            |
 | L. Bernasconi, A. Perlov, M. Plummer,           |
 | E. McNellis, J. Meyer, J. Gale, D. Jochym       |
 | J. Aarons, B. Walker, R. Gillen, D. Jones       |
 | T. Green, I. J. Bush, C. J. Armstrong,          |
 | E. J. Higgins, E. L. Brown, M. S. McFly         |
 |                                                 |
 | Copyright (c) 2000 - 2015                       |
 |                                                 |
 |     Distributed under the terms of an           |
 |     Agreement between the United Kingdom        |
 |     Car-Parrinello (UKCP) Consortium,           |
 |     Daresbury Laboratory and Accelrys, Inc.     |
 |                                                 |
 | Please cite                                     |
 |                                                 |
 |     "First principles methods using CASTEP"     |
 |                                                 |
 |         Zeitschrift fuer Kristallographie       |
 |           220(5-6) pp. 567-570 (2005)           |
 |                                                 |
 | S. J. Clark, M. D. Segall, C. J. Pickard,       |
 | P. J. Hasnip, M. J. Probert, K. Refson,         |
 | M. C. Payne                                     |
 |                                                 |
 |       in all publications arising from          |
 |              your use of CASTEP                 |
 |                                                 |
 +-------------------------------------------------+


 Compiled for linux_x86_64_gfortran4.8 on Mon, 06 Feb 2017 13:41:39 +0000
 from code version Version unavailable
 Compiler: GNU Fortran 4.8.4; Optimisation: fast
 MATHLIBS: atlas (LAPACK version 3.5.0)
 FFT Lib : fftw3 version fftw-3.3.3-sse2-avx
 Fundamental constants values: CODATA 2010

 Run started: Fri, 10 Feb 2017 14:57:40 +0000

 Atomic calculation performed for Al: 1s2 2s2 2p6 3s2 3p1

 Converged in 55 iterations to an ae energy of -6578.725 eV

   ============================================================                
   | Pseudopotential Report - Date of generation 10-02-2017   |                
   ------------------------------------------------------------                
   | Element: Al Ionic charge:  3.00 Level of theory: LDA     |                
   | Atomic Solver: Koelling-Harmon                           |                
   |                                                          |                
   |               Reference Electronic Structure             |                
   |         Orbital         Occupation         Energy        |                
   |            3s              2.000           -0.288        |                
   |            3p              1.000           -0.102        |                
   |                                                          |                
   |                 Pseudopotential Definition               |                
   |        Beta     l      e      Rc     scheme   norm       |                
   |          1      0   -0.288   2.000     qc      0         |                
   |          2      0    0.250   2.000     qc      0         |                
   |          3      1   -0.102   2.000     qc      0         |                
   |          4      1    0.250   2.000     qc      0         |                
   |          5      2    0.000   2.000     qc      0         |                
   |          6      2    0.250   2.000     qc      0         |                
   |         loc     3    0.000   2.000     pn      0         |                
   |                                                          |                
   | Augmentation charge Rinner = 1.398                       |                
   | Partial core correction Rc = 1.398                       |                
   ------------------------------------------------------------                
   | "3|2.0|4|4|5|30:31:32"                                   |                
   ------------------------------------------------------------                
   |      Author: Chris J. Pickard, Cambridge University      |                
   ============================================================                

 Pseudo atomic calculation performed for Al 3s2 3p1

 Converged in 15 iterations to a total energy of -105.5956 eV

 Calculation parallelised over 4 processes.
 Data is distributed by k-point(4-way)

 ************************************ Title ************************************
 

 ***************************** General Parameters ******************************
  
 output verbosity                               : normal  (1)
 write checkpoint data to                       : Al.check
 type of calculation                            : geometry optimization
 stress calculation                             : off
 density difference calculation                 : off
 electron localisation func (ELF) calculation   : off
 Hirshfeld analysis                             : off
 unlimited duration calculation
 timing information                             : on
 memory usage estimate                          : on
 write final potential to formatted file        : off
 write final density to formatted file          : off
 write BibTeX reference list                    : on
 write OTFG pseudopotential files               : on
 checkpoint writing                             : both castep_bin and check files
  
 output         length unit                     : A
 output           mass unit                     : amu
 output           time unit                     : ps
 output         charge unit                     : e
 output           spin unit                     : hbar/2
 output         energy unit                     : eV
 output          force unit                     : eV/A
 output       velocity unit                     : A/ps
 output       pressure unit                     : GPa
 output     inv_length unit                     : 1/A
 output      frequency unit                     : cm-1
 output force constant unit                     : eV/A**2
 output         volume unit                     : A**3
 output   IR intensity unit                     : (D/A)**2/amu
 output         dipole unit                     : D
 output         efield unit                     : eV/A/e
 output        entropy unit                     : J/mol/K
  
 wavefunctions paging                           : none
 random number generator seed                   : randomised (145740231)
 data distribution                              : optimal for this architecture
 optimization strategy                          : maximize speed(+++)

 *********************** Exchange-Correlation Parameters ***********************
  
 using functional                               : Local Density Approximation
 relativistic treatment                         : Koelling-Harmon
 DFT+D: Semi-empirical dispersion correction    : off

 ************************* Pseudopotential Parameters **************************
  
 pseudopotential representation                 : reciprocal space
 <beta|phi> representation                      : reciprocal space
 spin-orbit coupling                            : off

 **************************** Basis Set Parameters *****************************
  
 plane wave basis set cut-off                   :   750.0000   eV
 size of standard grid                          :     1.7500
 size of   fine   gmax                          :    24.5532   1/A
 finite basis set correction                    : automatic
 number of sample energies                      :          3
           sample  spacing                      :     5.0000   eV

 **************************** Electronic Parameters ****************************
  
 number of  electrons                           :  12.00    
 net charge of system                           :  0.000    
 treating system as non-spin-polarized
 number of bands                                :         10

 ********************* Electronic Minimization Parameters **********************
  
 Method: Treating system as metallic with density mixing treatment of electrons,
         and number of  SD  steps               :          1
         and number of  CG  steps               :          4
  
 total energy / atom convergence tol.           : 0.1000E-04   eV
 eigen-energy convergence tolerance             : 0.1000E-05   eV
 max force / atom convergence tol.              : ignored
 convergence tolerance window                   :          3   cycles
 max. number of SCF cycles                      :        200
 number of fixed-spin iterations                :         10
 smearing scheme                                : Gaussian
 smearing width                                 : 0.2000       eV
 Fermi energy convergence tolerance             : 0.2721E-13   eV
 periodic dipole correction                     : NONE

 ************************** Density Mixing Parameters **************************
  
 density-mixing scheme                          : Broyden
 max. length of mixing history                  :         20
 charge density mixing amplitude                : 0.8000    
 cut-off energy for mixing                      :  750.0       eV

 *********************** Population Analysis Parameters ************************
  
 Population analysis with cutoff                :  3.000       A

 ********************** Geometry Optimization Parameters ***********************
  
 optimization method                            : BFGS
 variable cell method                           : fixed basis quality
 max. number of steps                           :         30
 estimated bulk modulus                         :  500.0       GPa
 estimated <frequency>                          :  1668.       cm-1
 geom line minimiser                            : on
 with line minimiser tolerance                  :     0.4000
 total energy convergence tolerance             : 0.2000E-04   eV/atom
        max ionic |force| tolerance             : 0.5000E-01   eV/A
 max ionic |displacement| tolerance             : 0.1000E-02   A
   max |stress component| tolerance             : 0.1000       GPa
 convergence tolerance window                   :          2   steps
 backup results every                           :          5   steps

 *******************************************************************************
  

                           -------------------------------
                                      Unit Cell
                           -------------------------------
        Real Lattice(A)                      Reciprocal Lattice(1/A)
   4.0495000   0.0000000   0.0000000        1.5515953  -0.0000000  -0.0000000
   0.0000000   4.0495000   0.0000000        0.0000000   1.5515953  -0.0000000
   0.0000000   0.0000000   4.0495000        0.0000000   0.0000000   1.5515953

                       Lattice parameters(A)       Cell Angles
                    a =    4.049500          alpha =   90.000000
                    b =    4.049500          beta  =   90.000000
                    c =    4.049500          gamma =   90.000000

                       Current cell volume =   66.405524       A**3

                           -------------------------------
                                     Cell Contents
                           -------------------------------
                         Total number of ions in cell =    4
                      Total number of species in cell =    1
                        Max number of any one species =    4

            xxxxxxxxxxxxxxxxxxxxxxxxxxxxxxxxxxxxxxxxxxxxxxxxxxxxxxxxxxxx
            x  Element    Atom        Fractional coordinates of atoms  x
            x            Number           u          v          w      x
            x----------------------------------------------------------x
            x  Al           1         0.000000   0.000000   0.000000   x 
            x  Al           2         0.500000   0.500000   0.000000   x 
            x  Al           3         0.500000   0.000000   0.500000   x 
            x  Al           4         0.000000   0.500000   0.500000   x 
            xxxxxxxxxxxxxxxxxxxxxxxxxxxxxxxxxxxxxxxxxxxxxxxxxxxxxxxxxxxx


                         No user defined ionic velocities

                           -------------------------------
                                   Details of Species
                           -------------------------------

                               Mass of species in AMU
                                    Al   26.9815400

                          Electric Quadrupole Moment (Barn)
                                    Al    0.1466000 Isotope 27

                          Files used for pseudopotentials:
                                    Al 3|2.0|4|4|5|30:31:32

                           -------------------------------
                              k-Points For BZ Sampling
                           -------------------------------
                       MP grid size for SCF calculation is  4  4  4
                            with an offset of   0.000  0.000  0.000
                       Number of kpoints used =             4

                           -------------------------------
                               Symmetry and Constraints
                           -------------------------------

                      Cell is a supercell containing 4 primitive cells
                      Maximum deviation from symmetry = 0.521809E-31     ANG

                      Number of symmetry operations   =         192
                      Number of ionic constraints     =           3
                      Point group of crystal =    32: Oh, m-3m, 4/m -3 2/m
                      Space group of crystal =   225: Fm-3m, -F 4 2 3

             Set iprint > 1 for details on symmetry rotations/translations

                         Centre of mass is constrained
             Set iprint > 1 for details of linear ionic constraints

                         Number of cell constraints= 5
                         Cell constraints are:  1 1 1 0 0 0

                         External pressure/stress (GPa)
                          0.00000   0.00000   0.00000
                                    0.00000   0.00000
                                              0.00000
  
+---------------- MEMORY AND SCRATCH DISK ESTIMATES PER PROCESS --------------+
|                                                     Memory          Disk    |
| Baseline code, static data and system overhead    37097.0 MB         0.0 MB |
| BLAS internal memory storage                          0.0 MB         0.0 MB |
| Model and support data                               69.1 MB         0.0 MB |
| Electronic energy minimisation requirements           7.3 MB         0.0 MB |
| Force calculation requirements                        4.3 MB         0.0 MB |
|                                               ----------------------------- |
| Approx. total storage required per process        37173.4 MB         0.0 MB |
|                                                                             |
| Requirements will fluctuate during execution and may exceed these estimates |
+-----------------------------------------------------------------------------+
Calculating finite basis set correction with  3 cut-off energies.
Calculating total energy with cut-off of  740.000eV.
------------------------------------------------------------------------ <-- SCF
SCF loop      Energy           Fermi           Energy gain       Timer   <-- SCF
                               energy          per atom          (sec)   <-- SCF
------------------------------------------------------------------------ <-- SCF
Initial   8.51830020E+001  0.00000000E+000                         9.65  <-- SCF
      1  -3.95980683E+002  9.76877204E+000   1.20290921E+002       9.80  <-- SCF
      2  -4.36890342E+002  5.85673323E+000   1.02274146E+001       9.97  <-- SCF
      3  -4.39022490E+002  5.88422952E+000   5.33037173E-001      10.11  <-- SCF
      4  -4.38975701E+002  5.84851734E+000  -1.16974259E-002      10.39  <-- SCF
      5  -4.38966781E+002  5.83870041E+000  -2.22998282E-003      10.68  <-- SCF
      6  -4.38965865E+002  5.83581699E+000  -2.28926544E-004      10.96  <-- SCF
      7  -4.38965811E+002  5.83521352E+000  -1.34035625E-005      11.18  <-- SCF
      8  -4.38977686E+002  5.82324872E+000   2.96865922E-003      11.40  <-- SCF
      9  -4.38969189E+002  5.82689483E+000  -2.12423010E-003      11.64  <-- SCF
     10  -4.38970726E+002  5.82513747E+000   3.84372741E-004      11.87  <-- SCF
     11  -4.38970162E+002  5.82634146E+000  -1.41048249E-004      12.10  <-- SCF
     12  -4.38969766E+002  5.82708794E+000  -9.89541838E-005      12.31  <-- SCF
     13  -4.38971083E+002  5.82047124E+000   3.29049039E-004      12.53  <-- SCF
     14  -4.38970909E+002  5.82165676E+000  -4.32944014E-005      12.74  <-- SCF
     15  -4.38969491E+002  5.82378889E+000  -3.54601293E-004      12.98  <-- SCF
     16  -4.38972628E+002  5.82142679E+000   7.84345263E-004      13.20  <-- SCF
     17  -4.38972971E+002  5.82214491E+000   8.56715212E-005      13.39  <-- SCF
     18  -4.38954777E+002  5.82218135E+000  -4.54861574E-003      13.62  <-- SCF
     19  -4.38956648E+002  5.82381084E+000   4.67861011E-004      13.81  <-- SCF
     20  -4.38934483E+002  5.82112372E+000  -5.54126679E-003      14.05  <-- SCF
     21  -4.38934321E+002  5.82153486E+000  -4.06223323E-005      14.24  <-- SCF
     22  -4.38966830E+002  5.82457189E+000   8.12747857E-003      14.47  <-- SCF
     23  -4.38972646E+002  5.82571103E+000   1.45400048E-003      14.69  <-- SCF
     24  -4.38974332E+002  5.82617966E+000   4.21427035E-004      14.91  <-- SCF
     25  -4.38974878E+002  5.82641646E+000   1.36512033E-004      15.10  <-- SCF
     26  -4.38940409E+002  5.81620175E+000  -8.61741176E-003      15.32  <-- SCF
     27  -4.38903876E+002  5.80959444E+000  -9.13307771E-003      15.55  <-- SCF
     28  -4.38879256E+002  5.81757978E+000  -6.15513229E-003      15.79  <-- SCF
     29  -4.38399469E+002  5.89639702E+000  -1.19946611E-001      16.02  <-- SCF
     30  -4.37964274E+002  5.97064738E+000  -1.08798823E-001      16.27  <-- SCF
     31  -4.37460557E+002  6.02861694E+000  -1.25929267E-001      16.49  <-- SCF
     32  -4.39079692E+002  5.82796240E+000   4.04783817E-001      16.72  <-- SCF
     33  -4.39163833E+002  5.77916019E+000   2.10352202E-002      16.95  <-- SCF
     34  -4.38988278E+002  5.80477400E+000  -4.38886722E-002      17.18  <-- SCF
     35  -4.38864934E+002  5.81322982E+000  -3.08360451E-002      17.40  <-- SCF
     36  -4.38839438E+002  5.82945119E+000  -6.37394660E-003      17.63  <-- SCF
     37  -4.11447889E+002  8.07240594E+000  -6.84788727E+000      17.86  <-- SCF
     38  -4.11451197E+002  8.07154495E+000   8.26792723E-004      18.02  <-- SCF
     39  -4.13618263E+002  8.06921938E+000   5.41766574E-001      18.25  <-- SCF
     40  -4.18546253E+002  7.66323057E+000   1.23199748E+000      18.47  <-- SCF
     41  -4.32100853E+002  6.52075166E+000   3.38865010E+000      18.70  <-- SCF
     42  -4.32102716E+002  6.52036003E+000   4.65645268E-004      18.84  <-- SCF
     43  -4.36603735E+002  6.11290788E+000   1.12525474E+000      19.09  <-- SCF
     44  -4.38808636E+002  5.88210337E+000   5.51225359E-001      19.32  <-- SCF
     45  -4.38949314E+002  5.84512233E+000   3.51693834E-002      19.56  <-- SCF
     46  -4.38961490E+002  5.83695286E+000   3.04405453E-003      19.80  <-- SCF
     47  -4.38964073E+002  5.83541006E+000   6.45729674E-004      20.06  <-- SCF
     48  -4.38965668E+002  5.83483567E+000   3.98866392E-004      20.30  <-- SCF
     49  -4.38965797E+002  5.83460712E+000   3.21198453E-005      20.48  <-- SCF
     50  -4.38965794E+002  5.83512343E+000  -7.03467461E-007      20.68  <-- SCF
     51  -4.38965804E+002  5.83533467E+000   2.49147204E-006      20.88  <-- SCF
------------------------------------------------------------------------ <-- SCF
 
Final energy, E             =  -438.8708916950     eV
Final free energy (E-TS)    =  -438.9658038931     eV
(energies not corrected for finite basis set)
 
NB est. 0K energy (E-0.5TS)      =  -438.9183477940     eV
 
Calculating total energy with cut-off of  745.000eV.
------------------------------------------------------------------------ <-- SCF
SCF loop      Energy           Fermi           Energy gain       Timer   <-- SCF
                               energy          per atom          (sec)   <-- SCF
------------------------------------------------------------------------ <-- SCF
Initial  -4.38870886E+002  0.00000000E+000                        21.27  <-- SCF
      1  -4.38965799E+002  5.83476956E+000   2.37282636E-002      21.35  <-- SCF
      2  -4.38965799E+002  5.83476956E+000   1.84364823E-008      21.54  <-- SCF
      3  -4.38965799E+002  5.83478898E+000   1.92381778E-009      21.74  <-- SCF
      4  -4.38965799E+002  5.83480990E+000   3.30833819E-009      21.97  <-- SCF
------------------------------------------------------------------------ <-- SCF
 
Final energy, E             =  -438.8709076123     eV
Final free energy (E-TS)    =  -438.9657994643     eV
(energies not corrected for finite basis set)
 
NB est. 0K energy (E-0.5TS)      =  -438.9183535383     eV
 
  
 Error in calculate_finite_basis: 
     previous calculation had total energy = -438.9658038931      eV
     and this calculation has total energy = -438.9657994643      eV
      => something has gone seriously wrong with minimiser
  
 Checkpoint file cannot be written.
 +-------------------------------------------------+
 |                                                 |
 |      CCC   AA    SSS  TTTTT  EEEEE  PPPP        |
 |     C     A  A  S       T    E      P   P       |
 |     C     AAAA   SS     T    EEE    PPPP        |
 |     C     A  A     S    T    E      P           |
 |      CCC  A  A  SSS     T    EEEEE  P           |
 |                                                 |
 +-------------------------------------------------+
 |                                                 |
 | Welcome to Academic Release CASTEP version 16.11|          
 | Ab Initio Total Energy Program                  |
 |                                                 |
 | Authors:                                        |
 | M. Segall, M. Probert, C. Pickard, P. Hasnip,   |
 | S. Clark, K. Refson, J. R. Yates, M. Payne      |
 |                                                 |
 | Contributors:                                   |
 | P. Lindan, P. Haynes, J. White, V. Milman,      |
 | N. Govind, M. Gibson, P. Tulip, V. Cocula,      |
 | B. Montanari, D. Quigley, M. Glover,            |
 | L. Bernasconi, A. Perlov, M. Plummer,           |
 | E. McNellis, J. Meyer, J. Gale, D. Jochym       |
 | J. Aarons, B. Walker, R. Gillen, D. Jones       |
 | T. Green, I. J. Bush, C. J. Armstrong,          |
 | E. J. Higgins, E. L. Brown, M. S. McFly         |
 |                                                 |
 | Copyright (c) 2000 - 2015                       |
 |                                                 |
 |     Distributed under the terms of an           |
 |     Agreement between the United Kingdom        |
 |     Car-Parrinello (UKCP) Consortium,           |
 |     Daresbury Laboratory and Accelrys, Inc.     |
 |                                                 |
 | Please cite                                     |
 |                                                 |
 |     "First principles methods using CASTEP"     |
 |                                                 |
 |         Zeitschrift fuer Kristallographie       |
 |           220(5-6) pp. 567-570 (2005)           |
 |                                                 |
 | S. J. Clark, M. D. Segall, C. J. Pickard,       |
 | P. J. Hasnip, M. J. Probert, K. Refson,         |
 | M. C. Payne                                     |
 |                                                 |
 |       in all publications arising from          |
 |              your use of CASTEP                 |
 |                                                 |
 +-------------------------------------------------+


 Compiled for linux_x86_64_gfortran4.8 on Mon, 06 Feb 2017 13:41:39 +0000
 from code version Version unavailable
 Compiler: GNU Fortran 4.8.4; Optimisation: fast
 MATHLIBS: atlas (LAPACK version 3.5.0)
 FFT Lib : fftw3 version fftw-3.3.3-sse2-avx
 Fundamental constants values: CODATA 2010

 Run started: Fri, 10 Feb 2017 14:58:43 +0000

 Atomic calculation performed for Al: 1s2 2s2 2p6 3s2 3p1

 Converged in 55 iterations to an ae energy of -6578.725 eV

   ============================================================                
   | Pseudopotential Report - Date of generation 10-02-2017   |                
   ------------------------------------------------------------                
   | Element: Al Ionic charge:  3.00 Level of theory: LDA     |                
   | Atomic Solver: Koelling-Harmon                           |                
   |                                                          |                
   |               Reference Electronic Structure             |                
   |         Orbital         Occupation         Energy        |                
   |            3s              2.000           -0.288        |                
   |            3p              1.000           -0.102        |                
   |                                                          |                
   |                 Pseudopotential Definition               |                
   |        Beta     l      e      Rc     scheme   norm       |                
   |          1      0   -0.288   2.000     qc      0         |                
   |          2      0    0.250   2.000     qc      0         |                
   |          3      1   -0.102   2.000     qc      0         |                
   |          4      1    0.250   2.000     qc      0         |                
   |          5      2    0.000   2.000     qc      0         |                
   |          6      2    0.250   2.000     qc      0         |                
   |         loc     3    0.000   2.000     pn      0         |                
   |                                                          |                
   | Augmentation charge Rinner = 1.398                       |                
   | Partial core correction Rc = 1.398                       |                
   ------------------------------------------------------------                
   | "3|2.0|4|4|5|30:31:32"                                   |                
   ------------------------------------------------------------                
   |      Author: Chris J. Pickard, Cambridge University      |                
   ============================================================                

 Pseudo atomic calculation performed for Al 3s2 3p1

 Converged in 15 iterations to a total energy of -105.5956 eV

 Calculation parallelised over 4 processes.
 Data is distributed by k-point(4-way)

 ************************************ Title ************************************
 

 ***************************** General Parameters ******************************
  
 output verbosity                               : normal  (1)
 write checkpoint data to                       : Al.check
 type of calculation                            : geometry optimization
 stress calculation                             : off
 density difference calculation                 : off
 electron localisation func (ELF) calculation   : off
 Hirshfeld analysis                             : off
 unlimited duration calculation
 timing information                             : on
[...]
         Al 2 -- Al 4              0.55        2.82843
         Al 2 -- Al 3              0.55        2.82843
         Al 1 -- Al 4              0.55        2.82843
         Al 1 -- Al 3              0.55        2.82843
         Al 1 -- Al 2              0.56        2.82843
============================================================


Writing analysis data to Al.castep_bin

Writing model to Al.check
 
 A BibTeX formatted list of references used in this run has been written to 
 Al.bib
 
Initialisation time =      8.97 s
Calculation time    =     16.48 s
Finalisation time   =      0.11 s
Total time          =     25.55 s
Peak Memory Use     = 38250528 kB
  
Overall parallel efficiency rating: Satisfactory (64%)                          
  
Data was distributed by:-
k-point (4-way); efficiency rating: Satisfactory (64%)                          
  
Parallel notes:
1) Calculation only took 25.5 s, so efficiency estimates may be inaccurate.     
 +-------------------------------------------------+
 |                                                 |
 |      CCC   AA    SSS  TTTTT  EEEEE  PPPP        |
 |     C     A  A  S       T    E      P   P       |
 |     C     AAAA   SS     T    EEE    PPPP        |
 |     C     A  A     S    T    E      P           |
 |      CCC  A  A  SSS     T    EEEEE  P           |
 |                                                 |
 +-------------------------------------------------+
 |                                                 |
 | Welcome to Academic Release CASTEP version 16.11|          
 | Ab Initio Total Energy Program                  |
 |                                                 |
 | Authors:                                        |
 | M. Segall, M. Probert, C. Pickard, P. Hasnip,   |
 | S. Clark, K. Refson, J. R. Yates, M. Payne      |
 |                                                 |
 | Contributors:                                   |
 | P. Lindan, P. Haynes, J. White, V. Milman,      |
 | N. Govind, M. Gibson, P. Tulip, V. Cocula,      |
 | B. Montanari, D. Quigley, M. Glover,            |
 | L. Bernasconi, A. Perlov, M. Plummer,           |
 | E. McNellis, J. Meyer, J. Gale, D. Jochym       |
 | J. Aarons, B. Walker, R. Gillen, D. Jones       |
 | T. Green, I. J. Bush, C. J. Armstrong,          |
 | E. J. Higgins, E. L. Brown, M. S. McFly         |
 |                                                 |
 | Copyright (c) 2000 - 2015                       |
 |                                                 |
 |     Distributed under the terms of an           |
 |     Agreement between the United Kingdom        |
 |     Car-Parrinello (UKCP) Consortium,           |
 |     Daresbury Laboratory and Accelrys, Inc.     |
 |                                                 |
 | Please cite                                     |
 |                                                 |
 |     "First principles methods using CASTEP"     |
 |                                                 |
 |         Zeitschrift fuer Kristallographie       |
 |           220(5-6) pp. 567-570 (2005)           |
 |                                                 |
 | S. J. Clark, M. D. Segall, C. J. Pickard,       |
 | P. J. Hasnip, M. J. Probert, K. Refson,         |
 | M. C. Payne                                     |
 |                                                 |
 |       in all publications arising from          |
 |              your use of CASTEP                 |
 |                                                 |
 +-------------------------------------------------+


 Compiled for linux_x86_64_gfortran4.8 on Fri, 10 Feb 2017 18:46:43 +0000
 from code version Version unavailable
 Compiler: GNU Fortran 4.8.4; Optimisation: fast
 MATHLIBS: atlas (LAPACK version 3.5.0)
 FFT Lib : fftw3 version fftw-3.3.3-sse2-avx
 Fundamental constants values: CODATA 2010

 Run started: Fri, 10 Feb 2017 18:50:14 +0000

 Atomic calculation performed for Al: 1s2 2s2 2p6 3s2 3p1

 Converged in 54 iterations to an ae energy of -6603.782 eV

   ============================================================                
   | Pseudopotential Report - Date of generation 10-02-2017   |                
   ------------------------------------------------------------                
   | Element: Al Ionic charge:  3.00 Level of theory: PBE     |                
   | Atomic Solver: Koelling-Harmon                           |                
   |                                                          |                
   |               Reference Electronic Structure             |                
   |         Orbital         Occupation         Energy        |                
   |            3s              2.000           -0.285        |                
   |            3p              1.000           -0.100        |                
   |                                                          |                
   |                 Pseudopotential Definition               |                
   |        Beta     l      e      Rc     scheme   norm       |                
   |          1      0   -0.285   2.000     qc      0         |                
   |          2      0    0.250   2.000     qc      0         |                
   |          3      1   -0.100   2.000     qc      0         |                
   |          4      1    0.250   2.000     qc      0         |                
   |          5      2    0.000   2.000     qc      0         |                
   |          6      2    0.250   2.000     qc      0         |                
   |         loc     3    0.000   2.000     pn      0         |                
   |                                                          |                
   | Augmentation charge Rinner = 1.398                       |                
   | Partial core correction Rc = 1.398                       |                
   ------------------------------------------------------------                
   | "3|2.0|4|4|5|30:31:32"                                   |                
   ------------------------------------------------------------                
   |      Author: Chris J. Pickard, Cambridge University      |                
   ============================================================                

 Pseudo atomic calculation performed for Al 3s2 3p1

 Converged in 14 iterations to a total energy of -107.1305 eV

 Calculation parallelised over 4 processes.
 Data is distributed by k-point(4-way)

 ************************************ Title ************************************
 

 ***************************** General Parameters ******************************
  
 output verbosity                               : normal  (1)
 write checkpoint data to                       : Al.check
 type of calculation                            : single point energy
 stress calculation                             : off
 density difference calculation                 : off
 electron localisation func (ELF) calculation   : off
 Hirshfeld analysis                             : off
 unlimited duration calculation
 timing information                             : on
 memory usage estimate                          : on
 write final potential to formatted file        : off
 write final density to formatted file          : off
 write BibTeX reference list                    : on
 write OTFG pseudopotential files               : on
 checkpoint writing                             : both castep_bin and check files
  
 output         length unit                     : A
 output           mass unit                     : amu
 output           time unit                     : ps
 output         charge unit                     : e
 output           spin unit                     : hbar/2
 output         energy unit                     : eV
 output          force unit                     : eV/A
 output       velocity unit                     : A/ps
 output       pressure unit                     : GPa
 output     inv_length unit                     : 1/A
 output      frequency unit                     : cm-1
 output force constant unit                     : eV/A**2
 output         volume unit                     : A**3
 output   IR intensity unit                     : (D/A)**2/amu
 output         dipole unit                     : D
 output         efield unit                     : eV/A/e
 output        entropy unit                     : J/mol/K
  
 wavefunctions paging                           : none
 random number generator seed                   : randomised (185014688)
 data distribution                              : optimal for this architecture
 optimization strategy                          : maximize speed(+++)

 *********************** Exchange-Correlation Parameters ***********************
  
 using functional                               : Perdew Burke Ernzerhof
 relativistic treatment                         : Koelling-Harmon
 DFT+D: Semi-empirical dispersion correction    : off

 ************************* Pseudopotential Parameters **************************
  
 pseudopotential representation                 : reciprocal space
 <beta|phi> representation                      : reciprocal space
 spin-orbit coupling                            : off

 **************************** Basis Set Parameters *****************************
  
 plane wave basis set cut-off                   :   600.0000   eV
 size of standard grid                          :     1.7500
 size of   fine   gmax                          :    21.9610   1/A
 finite basis set correction                    : none

 **************************** Electronic Parameters ****************************
  
 number of  electrons                           :  12.00    
 net charge of system                           :  0.000    
 treating system as non-spin-polarized
 number of bands                                :         10

 ********************* Electronic Minimization Parameters **********************
  
 Method: Treating system as metallic with density mixing treatment of electrons,
         and number of  SD  steps               :          1
         and number of  CG  steps               :          4
  
 total energy / atom convergence tol.           : 0.1000E-04   eV
 eigen-energy convergence tolerance             : 0.1000E-05   eV
 max force / atom convergence tol.              : ignored
 convergence tolerance window                   :          3   cycles
 max. number of SCF cycles                      :       1000
 number of fixed-spin iterations                :         10
 smearing scheme                                : Gaussian
 smearing width                                 : 0.2000       eV
 Fermi energy convergence tolerance             : 0.2721E-13   eV
 periodic dipole correction                     : NONE

 ************************** Density Mixing Parameters **************************
  
 density-mixing scheme                          : Linear
 charge density mixing amplitude                : 0.8000    
 cut-off energy for mixing                      :  600.0       eV

 *********************** Population Analysis Parameters ************************
  
 Population analysis with cutoff                :  3.000       A

 *******************************************************************************
  

                           -------------------------------
                                      Unit Cell
                           -------------------------------
        Real Lattice(A)                      Reciprocal Lattice(1/A)
   4.0000000   0.0000000   0.0000000        1.5707963  -0.0000000  -0.0000000
   0.0000000   4.0000000   0.0000000        0.0000000   1.5707963  -0.0000000
   0.0000000   0.0000000   4.0000000        0.0000000   0.0000000   1.5707963

                       Lattice parameters(A)       Cell Angles
                    a =    4.000000          alpha =   90.000000
                    b =    4.000000          beta  =   90.000000
                    c =    4.000000          gamma =   90.000000

                       Current cell volume =   64.000000       A**3

                           -------------------------------
                                     Cell Contents
                           -------------------------------
                         Total number of ions in cell =    4
                      Total number of species in cell =    1
                        Max number of any one species =    4

            xxxxxxxxxxxxxxxxxxxxxxxxxxxxxxxxxxxxxxxxxxxxxxxxxxxxxxxxxxxx
            x  Element    Atom        Fractional coordinates of atoms  x
            x            Number           u          v          w      x
            x----------------------------------------------------------x
            x  Al           1         0.000000   0.000000   0.000000   x 
            x  Al           2         0.500000   0.500000   0.000000   x 
            x  Al           3         0.500000   0.000000   0.500000   x 
            x  Al           4         0.000000   0.500000   0.500000   x 
            xxxxxxxxxxxxxxxxxxxxxxxxxxxxxxxxxxxxxxxxxxxxxxxxxxxxxxxxxxxx


                         No user defined ionic velocities

                           -------------------------------
                                   Details of Species
                           -------------------------------

                               Mass of species in AMU
                                    Al   26.9815400

                          Electric Quadrupole Moment (Barn)
                                    Al    0.1466000 Isotope 27

                          Files used for pseudopotentials:
                                    Al 3|2.0|4|4|5|30:31:32

                           -------------------------------
                              k-Points For BZ Sampling
                           -------------------------------
                       MP grid size for SCF calculation is  4  4  4
                            with an offset of   0.000  0.000  0.000
                       Number of kpoints used =            32

                           -------------------------------
                               Symmetry and Constraints
                           -------------------------------

                      Cell is a supercell containing 4 primitive cells
                      Maximum deviation from symmetry =  0.00000         ANG

         There are no symmetry operations specified or generated for this cell
                      Number of ionic constraints     =           3
                      Point group of crystal =     1: C1, 1, 1
                      Space group of crystal =   225: Fm-3m, -F 4 2 3


                         Centre of mass is constrained
             Set iprint > 1 for details of linear ionic constraints

                         Number of cell constraints= 0
                         Cell constraints are:  1 2 3 4 5 6

                         External pressure/stress (GPa)
                          0.00000   0.00000   0.00000
                                    0.00000   0.00000
                                              0.00000
  
+---------------- MEMORY AND SCRATCH DISK ESTIMATES PER PROCESS --------------+
|                                                     Memory          Disk    |
| Baseline code, static data and system overhead    37097.0 MB         0.0 MB |
| BLAS internal memory storage                          0.0 MB         0.0 MB |
| Model and support data                               63.5 MB         0.0 MB |
| Electronic energy minimisation requirements           9.7 MB         0.0 MB |
| Force calculation requirements                        3.5 MB         0.0 MB |
|                                               ----------------------------- |
| Approx. total storage required per process        37170.2 MB         0.0 MB |
|                                                                             |
| Requirements will fluctuate during execution and may exceed these estimates |
+-----------------------------------------------------------------------------+
------------------------------------------------------------------------ <-- SCF
SCF loop      Energy           Fermi           Energy gain       Timer   <-- SCF
                               energy          per atom          (sec)   <-- SCF
------------------------------------------------------------------------ <-- SCF
Initial   8.70376512E+001  0.00000000E+000                        15.34  <-- SCF
      1  -3.95738750E+002  9.96863712E+000   1.20694100E+002      17.93  <-- SCF
      2  -4.41027077E+002  6.18350299E+000   1.13220818E+001      20.68  <-- SCF
      3  -4.43354192E+002  6.09079294E+000   5.81778790E-001      23.08  <-- SCF
      4  -4.43332255E+002  6.05472015E+000  -5.48425219E-003      26.39  <-- SCF
      5  -4.43332479E+002  6.05129695E+000   5.60542327E-005      29.66  <-- SCF
      6  -4.43332534E+002  6.05088336E+000   1.36337687E-005      32.93  <-- SCF
      7  -4.43332535E+002  6.05085452E+000   2.94844312E-007      35.96  <-- SCF
      8  -4.43332535E+002  6.05085242E+000  -1.51388411E-007      37.90  <-- SCF
------------------------------------------------------------------------ <-- SCF
 
Final energy, E             =  -443.2394007592     eV
Final free energy (E-TS)    =  -443.3325345254     eV
(energies not corrected for finite basis set)
 
NB est. 0K energy (E-0.5TS)      =  -443.2859676423     eV
 

Writing analysis data to Al.castep_bin

Writing model to Al.check

 *********************** Forces ***********************
 *                                                    *
 *            Cartesian components (eV/A)             *
 * -------------------------------------------------- *
 *                   x            y            z      *
 *                                                    *
 * Al        1      0.00117     -0.00140      0.00123 *
 * Al        2     -0.00112      0.00130      0.00134 *
 * Al        3     -0.00124     -0.00129     -0.00132 *
 * Al        4      0.00118      0.00139     -0.00125 *
 *                                                    *
 ******************************************************

 Pseudo atomic calculation performed for Al 3s2 3p1

 Converged in 14 iterations to a total energy of -107.1305 eV

Charge spilling parameter for spin component 1 = 2.08%

     Atomic Populations (Mulliken)
     -----------------------------
Species   Ion     s      p      d      f     Total  Charge (e)
==============================================================
  Al       1     1.07   1.93   0.00   0.00   3.00     0.00
  Al       2     1.07   1.93   0.00   0.00   3.00    -0.00
  Al       3     1.07   1.93   0.00   0.00   3.00    -0.00
  Al       4     1.07   1.93   0.00   0.00   3.00    -0.00
==============================================================

            Bond              Population      Length (A)
============================================================
         Al 3 -- Al 4              0.56        2.82843
         Al 2 -- Al 4              0.55        2.82843
         Al 2 -- Al 3              0.56        2.82843
         Al 1 -- Al 4              0.55        2.82843
         Al 1 -- Al 3              0.56        2.82843
         Al 1 -- Al 2              0.56        2.82843
============================================================


Writing analysis data to Al.castep_bin

Writing model to Al.check
 
 A BibTeX formatted list of references used in this run has been written to 
 Al.bib
 
Initialisation time =     11.91 s
Calculation time    =     29.10 s
Finalisation time   =      0.43 s
Total time          =     41.44 s
Peak Memory Use     = 38250528 kB
  
Overall parallel efficiency rating: Poor (46%)                                  
  
Data was distributed by:-
k-point (4-way); efficiency rating: Poor (47%)                                  
  
Parallel notes:
1) Calculation only took 41.0 s, so efficiency estimates may be inaccurate.     
